LAMMPS data file. msi2lmp v3.9.9 / 05 Nov 2018 / CGCMM for ethylene-glycol

     10 atoms
      9 bonds
     14 angles
     15 dihedrals
      0 impropers

   4 atom types
   4 bond types
   5 angle types
   5 dihedral types

    -3.685622446     1.714351964 xlo xhi
    -1.741239880     1.971690426 ylo yhi
    -1.632633436     1.772909110 zlo zhi

Masses

   1  12.011150 # c2
   2  15.999400 # oh
   3   1.007970 # h
   4   1.007970 # ho

Pair Coeffs # lj/cut/coul/long

   1   0.0389999952   3.8754094636 # c2
   2   0.2280000124   2.8597848722 # oh
   3   0.0380000011   2.4499714540 # h
   4   0.0000000000   0.0000000000 # ho

Bond Coeffs # harmonic

   1   322.7158     1.5260 # c2-c2
   2   384.0000     1.4200 # c2-oh
   3   340.6175     1.1050 # c2-h
   4   540.6336     0.9600 # oh-ho

Angle Coeffs # harmonic

   1    70.0000   109.5000 # c2-c2-oh
   2    44.4000   110.0000 # c2-c2-h
   3    57.0000   109.5000 # oh-c2-h
   4    39.5000   106.4000 # h-c2-h
   5    58.5000   106.0000 # c2-oh-ho

Dihedral Coeffs # harmonic

  1     0.1581   1   3 # oh-c2-c2-oh
  2     0.1581   1   3 # oh-c2-c2-h
  3     0.1581   1   3 # h-c2-c2-h
  4     0.1300   1   3 # c2-c2-oh-ho
  5     0.1300   1   3 # h-c2-oh-ho

Atoms # full

      1      1   1 -0.170000    -1.781483324    -0.378000657    -0.131888583   0   0   0 # c2
      2      1   1 -0.170000    -0.715229946     0.628016411     0.279682944   0   0   0 # c2
      3      1   2 -0.380000     0.542385345    -0.029455459     0.310304739   0   0   0 # oh
      4      1   2 -0.380000    -3.047948529     0.262663316    -0.153408002   0   0   0 # oh
      5      1   3  0.100000    -1.796592116    -1.241239880     0.561696936   0   0   0 # h
      6      1   3  0.100000    -1.553060568    -0.794190032    -1.132633436   0   0   0 # h
      7      1   3  0.100000    -0.943700200     1.060233919     1.272909110   0   0   0 # h
      8      1   3  0.100000    -0.691485487     1.471690426    -0.438266815   0   0   0 # h
      9      1   4  0.350000     1.214351964     0.638593384     0.473070663   0   0   0 # ho
     10      1   4  0.350000    -3.185622446     0.631844907     0.722980113   0   0   0 # ho

Bonds

     1   1      1      2
     2   2      1      4
     3   3      1      5
     4   3      1      6
     5   2      2      3
     6   3      2      7
     7   3      2      8
     8   4      3      9
     9   4      4     10

Angles

     1   1      2      1      4
     2   2      2      1      5
     3   2      2      1      6
     4   3      4      1      5
     5   3      4      1      6
     6   4      5      1      6
     7   1      1      2      3
     8   2      1      2      7
     9   2      1      2      8
    10   3      3      2      7
    11   3      3      2      8
    12   4      7      2      8
    13   5      2      3      9
    14   5      1      4     10

Dihedrals

     1   1      4      1      2      3
     2   2      4      1      2      7
     3   2      4      1      2      8
     4   2      3      2      1      5
     5   3      5      1      2      7
     6   3      5      1      2      8
     7   2      3      2      1      6
     8   3      6      1      2      7
     9   3      6      1      2      8
    10   4      2      1      4     10
    11   5      5      1      4     10
    12   5      6      1      4     10
    13   4      1      2      3      9
    14   5      7      2      3      9
    15   5      8      2      3      9

